! Touchstone file exported from HFSS 2019.2.0
!        File:           D:/SJTU/Bachelor/thesis/Multi-line/transmission-line-params-extractor/data/4line.aedt
!        Generated:      4:38:55 下午  5月 06, 2020
!        Design:         4linetoRLCG
!        Project:        4line
!        Setup:          Setup1
!        Solution:       Sweep
!
! Variables:
!        Ls = 10mm
!        Ws = 10mm
!        dx = 0.254mm
!        g = 0.127mm
!        gd = 0.508mm
!        h = 1.6mm
!        hs = 5mm
!        t = 0.1mm
!        wc = 0.254mm
!        xd = 5mm
!
# GHZ S MA R 50.000000
! Terminal data exported
! Port[1] = M1_1_T1
! Port[2] = M1_T1
! Port[3] = M2_1_T1
! Port[4] = M2_T1
! Port[5] = M1_1_T2
! Port[6] = M1_T2
! Port[7] = M2_1_T2
! Port[8] = M2_T2
0.01                           0.18527446412843 0.623822928099331 0.185116634315182 -0.218792330036863 0.185120039028944 0.432468992559651 0.185106477418962 -0.29154201562613 
                0.814742260094622 -0.212378170178606 0.185116836554943 179.746786873219 0.185117491057808 -179.765158450662 0.185106732782868 179.697221081657 
                0.185116513511393 -0.218763923549516 0.185273931968862 0.623806064637946 0.185106441333123 -0.291501156773244 0.185120625839635 0.432210385972958 
                0.185116857989185 179.746721550044 0.814741904382224 -0.212373629644526 0.185106607533029 179.697123239931 0.185116500724172 -179.764997697413 
                0.185120387895365 0.432278561347885 0.185106504908547 -0.291547352243792 0.185288240846345 0.696833327075546 0.185099877701243 -0.344234669721115 
                0.185117074719836 -179.76498917277 0.185106758146231 179.697181231646 0.814731981080247 -0.22694740428477 0.185099863075953 179.650254889907 
                0.185106605941   -0.291532977559865 0.185120985705222 0.432391271434776 0.185099694374135 -0.344242880696577 0.185287964584733 0.696793512926102 
                0.185106621349148 179.697189302091 0.185116561299195 -179.765188056219 0.185100075189735 179.650320735294 0.814731453475202 -0.226942865603184 
                0.814742281328815 -0.212375390913889 0.185116926256021 179.746763929081 0.185117370684844 -179.765160470578 0.185106643750247 179.69717738117  
                0.185274411269433 0.623806663377906 0.185116583302087 -0.218809287508644 0.185120064190764 0.432447331509543 0.185106510250722 -0.291560195819439 
                0.18511696057807 179.74674433434  0.814741674136064 -0.212375933370136 0.185106732113966 179.697157201916 0.185116750584551 -179.76502030206 
                0.185116646253713 -0.218752101187158 0.185274131664541 0.62380704946749 0.185106635476844 -0.291477566157894 0.185120865782414 0.432231222136569 
                0.185117113927519 -179.764978805729 0.185106758887921 179.697188557812 0.814732037937154 -0.226951953589475 0.185099779295728 179.650282680415 
                0.185120386616885 0.432286421027629 0.185106398956601 -0.291521043420745 0.185288326075182 0.696834580309727 0.185099898516129 -0.344198587943503 
                0.18510658299462 179.697191628013 0.185116393457497 -179.765174396422 0.185099968370628 179.650292241499 0.814731603488115 -0.226938617414669 
                0.185106553294238 -0.291552549375936 0.185120808296853 0.432393017464634 0.185099677972701 -0.344266991904909 0.185287819659066 0.696814720998326 
! Port Impedance50               0                0                0                0                0                0                0                
!               0                0                0                0                0                0                0                0                
!               0                0                50               0                0                0                0                0                
!               0                0                0                0                0                0                0                0                
!               0                0                0                0                50               0                0                0                
!               0                0                0                0                0                0                0                0                
!               0                0                0                0                0                0                50               0                
!               0                0                0                0                0                0                0                0                
!               0                0                0                0                0                0                0                0                
!               50               0                0                0                0                0                0                0                
!               0                0                0                0                0                0                0                0                
!               0                0                50               0                0                0                0                0                
!               0                0                0                0                0                0                0                0                
!               0                0                0                0                50               0                0                0                
!               0                0                0                0                0                0                0                0                
!               0                0                0                0                0                0                50               0                

0.11                           0.187911230102689 5.61028963170521 0.185074564559523 -3.20219414933605 0.186802198986631 3.9390084466218  0.185035680899048 -3.96999172329979 
                0.813427721951093 -2.07198529806858 0.185137274304916 176.418984852272 0.186371183227459 -178.213223427843 0.185065741085201 175.905986543448 
                0.185074847205104 -3.20225362023574 0.187912082983913 5.61022498753032 0.185035603609192 -3.97001967919265 0.186801032956604 3.93883794214597 
                0.185136961951255 176.419102676953 0.813427293327454 -2.07202411178353 0.185065824205768 175.905893944201 0.186370995452807 -178.214129793352 
                0.18680188626556 3.9392165114006  0.185035654894189 -3.96989705528527 0.188429577166381 6.35525428371272 0.184997332373976 -4.52814070447315 
                0.186371747681486 -178.21350970075 0.185065629464   175.905654286069 0.813252113973485 -2.22529324308555 0.18501448199204 175.412504184946 
                0.185035496199556 -3.96984366291949 0.186801328152012 3.93858782387752 0.184997322132809 -4.52806933961988 0.188429723683265 6.35528861932182 
                0.185066092945576 175.905871190915 0.186370967037166 -178.213673592053 0.185014735527069 175.412464913247 0.813252125182313 -2.22524028808569 
                0.813427735157005 -2.07199672840801 0.185137281362093 176.41901668361  0.186371420576235 -178.213317956858 0.185065824489437 175.905986562083 
                0.187913116421927 5.61134543004917 0.185074407377282 -3.20202815904089 0.186801035861291 3.93780820231336 0.185035542658466 -3.96989370109706 
                0.185137058365377 176.419151718874 0.813427260779771 -2.07202618398914 0.185065811254724 175.90583662935  0.18637096443037 -178.214117233435 
                0.185074771209165 -3.20210626936986 0.187912918901313 5.60966793547338 0.185035731607758 -3.96992834323024 0.186800264200971 3.93934625933991 
                0.18637150935454 -178.213410744007 0.185065727078172 175.905705605658 0.813252101152732 -2.22528400802068 0.185014657317212 175.412532905597 
                0.186800751919942 3.93791877923876 0.185035658081719 -3.96989410939043 0.188431532741325 6.35691894688362 0.184997237973972 -4.52805966032458 
                0.18506594077613 175.905882561038 0.186371000385098 -178.21369251141 0.185014463458543 175.412353802229 0.813252165106828 -2.22523649279817 
                0.185035249783851 -3.9698245238699 0.186800559210603 3.93911861281986 0.184997159915532 -4.52797881027884 0.188430886332836 6.35467599732832 
! Port Impedance50               0                0                0                0                0                0                0                
!               0                0                0                0                0                0                0                0                
!               0                0                50               0                0                0                0                0                
!               0                0                0                0                0                0                0                0                
!               0                0                0                0                50               0                0                0                
!               0                0                0                0                0                0                0                0                
!               0                0                0                0                0                0                50               0                
!               0                0                0                0                0                0                0                0                
!               0                0                0                0                0                0                0                0                
!               50               0                0                0                0                0                0                0                
!               0                0                0                0                0                0                0                0                
!               0                0                50               0                0                0                0                0                
!               0                0                0                0                0                0                0                0                
!               0                0                0                0                50               0                0                0                
!               0                0                0                0                0                0                0                0                
!               0                0                0                0                0                0                50               0                

0.21                           0.192937704101992 10.2283985699964 0.184089786871306 -6.15755269949628 0.190382004142277 7.24347955559354 0.184052835311581 -7.61598298441711 
                0.811637325990177 -3.90932804257434 0.184318387220721 173.118413525535 0.18883210082314 -176.781022378384 0.184164336866786 172.147606882612 
                0.184090195286917 -6.15762162838497 0.19295052064382 10.2278957635006 0.184053050832245 -7.61611294681579 0.190369299018665 7.24316356989813 
                0.184319205948387 173.118695974249 0.811635255745021 -3.90932588659849 0.184163721108471 172.147476026328 0.188831158745999 -176.782212814522 
                0.190381668835118 7.24357427365747 0.184052346803433 -7.6161108056074 0.19464209548912 11.5293597047649 0.183985010591148 -8.67564883143271 
                0.188832491747022 -176.781414144924 0.184163035388724 172.147003567895 0.811090229867744 -4.19762027667752 0.184048400597986 171.211582930954 
                0.184053080692784 -7.6157997523922 0.190370113303049 7.2429227268035  0.183984625238064 -8.67560221490402 0.194655735301345 11.5293252999496 
                0.184164171263645 172.147454744216 0.188833017320325 -176.781410959479 0.184048203036855 171.211645139566 0.81109020469824 -4.19751939857981 
                0.811637193120475 -3.90933470291544 0.184318738330881 173.118499873608 0.18883244966126 -176.781216783941 0.184164446074399 172.147582441656 
                0.192957020450666 10.2289581951435 0.184090881827242 -6.15723509640247 0.190360614363378 7.2422784014626  0.184053520550858 -7.61575303338168 
                0.184319062103373 173.11869135661  0.811635595716439 -3.90932721873729 0.18416377921685 172.147287087125 0.188831030732802 -176.7820756113  
                0.184091156157548 -6.15727741768651 0.192943526444337 10.226342717958  0.184052416947894 -7.61594414785598 0.19037454095612 7.24456966926567 
                0.188832122295176 -176.781214970882 0.184162960813626 172.147274462469 0.811090313726361 -4.19761969530098 0.184048231795478 171.211730882784 
                0.190359987203472 7.24231866233145 0.184051296337344 -7.61607140449228 0.194667686084853 11.5306828295206 0.183984549979388 -8.67537928821369 
                0.18416416345277 172.14740980164  0.18883311670132 -176.781561638672 0.184048155526584 171.21140252234  0.811089898151706 -4.19751372533472 
                0.184053693307308 -7.61561290141589 0.190376832017488 7.24439956694853 0.183984310420405 -8.6754049408977 0.194648962522285 11.5272350796176 
! Port Impedance50               0                0                0                0                0                0                0                
!               0                0                0                0                0                0                0                0                
!               0                0                50               0                0                0                0                0                
!               0                0                0                0                0                0                0                0                
!               0                0                0                0                50               0                0                0                
!               0                0                0                0                0                0                0                0                
!               0                0                0                0                0                0                50               0                
!               0                0                0                0                0                0                0                0                
!               0                0                0                0                0                0                0                0                
!               50               0                0                0                0                0                0                0                
!               0                0                0                0                0                0                0                0                
!               0                0                50               0                0                0                0                0                
!               0                0                0                0                0                0                0                0                
!               0                0                0                0                50               0                0                0                
!               0                0                0                0                0                0                0                0                
!               0                0                0                0                0                0                50               0                

0.31                           0.200316223604574 14.3367917540219 0.182365117714495 -9.05927638408483 0.195695825715806 10.1908426497846 0.182353983381627 -11.2094090766726 
                0.809201318001701 -5.7214732066993 0.182862852849255 169.869066735086 0.192540095451903 -175.567564490221 0.182593615979732 168.441931896271 
                0.182365390388762 -9.05940639693274 0.200326035040061 14.3333316872645 0.182354303064842 -11.2097516061863 0.195684032758441 10.1932075752877 
                0.182863993519312 169.869177576621 0.809199164595685 -5.72136422637068 0.182593029181651 168.441965704233 0.192537786657774 -175.569001136316 
                0.195695518874601 10.1909604986612 0.182353522616965 -11.2096197442251 0.203724068386638 16.0297273917699 0.182253665669182 -12.7693763593601 
                0.192540269418052 -175.567916166882 0.182592160250832 168.441368439839 0.808103175170959 -6.13922549598299 0.182390335265382 167.065116161273 
                0.182354433549982 -11.2092565908306 0.195684378044575 10.1928185712756 0.182253205282418 -12.7692317484657 0.203734274016772 16.0263375663502 
                0.182593111555407 168.441867213354 0.192540129550654 -175.568309269747 0.182390104921632 167.065447446297 0.808103270830241 -6.13902845237349 
                0.809201138810523 -5.72147368459263 0.182863301389644 169.869070853824 0.192540318733306 -175.56774662169 0.182593599224187 168.441923346123 
                0.200331566151569 14.3345543499299 0.182366221863446 -9.05930214183747 0.195678136040743 10.1933143108806 0.182354918751192 -11.2094399601972 
                0.182863777398597 169.869251468613 0.809199629965327 -5.72138635801251 0.182592855665613 168.441634439167 0.192537808844239 -175.568830004725 
                0.182366336757451 -9.05934199420794 0.200318525176137 14.3335238453417 0.182353796105799 -11.2093189178635 0.195690297653078 10.193175979072  
                0.19254001645753 -175.567723496151 0.182592310870152 168.441844972273 0.808103289578696 -6.13923112845848 0.182390104495502 167.065532638466 
                0.19567743752614 10.1934426234211 0.182352477702682 -11.2092948625758 0.203744636599328 16.0272364302578 0.182253500854113 -12.7689880833233 
                0.18259325429388 168.441730961985 0.192540071144029 -175.568493504343 0.182390085327822 167.064939436317 0.808102833084072 -6.13900147572101 
                0.182355309992449 -11.209335242886 0.195692391667372 10.1925392485709 0.182253193669002 -12.7690010722293 0.203726180773293 16.026042265424  
! Port Impedance50               0                0                0                0                0                0                0                
!               0                0                0                0                0                0                0                0                
!               0                0                50               0                0                0                0                0                
!               0                0                0                0                0                0                0                0                
!               0                0                0                0                50               0                0                0                
!               0                0                0                0                0                0                0                0                
!               0                0                0                0                0                0                50               0                
!               0                0                0                0                0                0                0                0                
!               0                0                0                0                0                0                0                0                
!               50               0                0                0                0                0                0                0                
!               0                0                0                0                0                0                0                0                
!               0                0                50               0                0                0                0                0                
!               0                0                0                0                0                0                0                0                
!               0                0                0                0                50               0                0                0                
!               0                0                0                0                0                0                0                0                
!               0                0                0                0                0                0                50               0                

0.41                           0.209663026244019 17.8426438888587 0.180023990911481 -11.8847279330858 0.202502374657148 12.708143717634  0.180057279147859 -14.7313327428128 
                0.806084933697403 -7.50750724101737 0.180887061652316 166.691952653246 0.197341668600487 -174.63624025424 0.18046984520322 164.808802669474 
                0.180023992845972 -11.8848819629741 0.209665138771028 17.8384331770406 0.18005758126352 -14.7318163929183 0.202495789808339 12.7113707015228 
                0.180888073509063 166.691992636506 0.806083475982808 -7.50732244081817 0.180469698811022 164.808925461009 0.197337765016033 -174.637796560898 
                0.202502247441491 12.7082720947211 0.180057109071589 -14.7315929649272 0.215119541969859 19.7567684819213 0.179920226583786 -16.7918458931085 
                0.19734168545833 -174.636652979512 0.180468880865638 164.808267042292 0.804264062998129 -8.04816005927172 0.180155747128834 162.991293020786 
                0.180057814808666 -14.7312136383783 0.202495295555274 12.7109836557773 0.179919897711655 -16.791620941328 0.21512041535499 19.7526971379648 
                0.180469301943011 164.808884093501 0.19733977388806 -174.637134982084 0.180155819651616 162.991810254071 0.804264868891134 -8.04786843033629 
                0.806084742941724 -7.50750286869644 0.18088748846244 166.691953347712 0.197341697296765 -174.636495778263 0.180469836410505 164.808878784286 
                0.209670357113786 17.8404843882684 0.18002447165313 -11.8848545701256 0.202494524759013 12.710926287895  0.180057868860556 -14.7314937805027 
                0.180887867943353 166.692066016262 0.806083888345225 -7.50736208580775 0.18046926667552 164.808541577896 0.197337845438148 -174.637599599919 
                0.180024364239428 -11.8848768453654 0.209661245176797 17.8391260012739 0.18005742921955 -14.7312512087129 0.202499644753898 12.7107840218575 
                0.197341624918912 -174.636382025053 0.180469294316484 164.808838162901 0.804264197211816 -8.04817030832904 0.180155729674458 162.991901560491 
                0.202494003046668 12.7111169124804 0.180056410940403 -14.7311090865828 0.215129389497903 19.7544706386761 0.179920295799383 -16.7914256532959 
                0.180469415825329 164.808610241418 0.197339663156045 -174.637344374716 0.180155602846349 162.991115487034 0.804264462848938 -8.04782317213452 
                0.180058333026097 -14.7314258549104 0.20250040244129 12.7099328117561 0.179920060346783 -16.7914168655162 0.215115937564191 19.7529579546164 
! Port Impedance50               0                0                0                0                0                0                0                
!               0                0                0                0                0                0                0                0                
!               0                0                50               0                0                0                0                0                
!               0                0                0                0                0                0                0                0                
!               0                0                0                0                50               0                0                0                
!               0                0                0                0                0                0                0                0                
!               0                0                0                0                0                0                50               0                
!               0                0                0                0                0                0                0                0                
!               0                0                0                0                0                0                0                0                
!               50               0                0                0                0                0                0                0                
!               0                0                0                0                0                0                0                0                
!               0                0                50               0                0                0                0                0                
!               0                0                0                0                0                0                0                0                
!               0                0                0                0                50               0                0                0                
!               0                0                0                0                0                0                0                0                
!               0                0                0                0                0                0                50               0                

0.51                           0.220509276002396 20.7230622469261 0.177142850059866 -14.6196449113291 0.210466246955566 14.7545387291523 0.17723424808389 -18.1695814281493 
                0.802329317265245 -9.26141804378457 0.178459738882491 163.600177285898 0.203019492042642 -174.023875516145 0.177862233684316 161.260784948037 
                0.177142576535231 -14.6197775312639 0.220505699101982 20.7193731264067 0.177234640456695 -18.1701599720373 0.210463067333908 14.7575435608696 
                0.178460673601158 163.600240554334 0.802328775046082 -9.26119250059026 0.177862585756166 161.260915985156 0.203013932177652 -174.025422186058 
                0.210466318739797 14.7546464610452 0.177234582258464 -18.1699160864461 0.228192232015033 22.709692228556  0.177055423332493 -20.731459249524 
                0.203019067171537 -174.024379683481 0.177862014596626 161.260213417087 0.799633071355117 -9.91683734347966 0.177413776614299 159.002210263227 
                0.17723481125934 -18.1694945674363 0.210461837948591 14.7572919639994 0.177055302096415 -20.7311945714213 0.22818628342556 22.7064727848581 
                0.1778619270652  161.261009425493 0.203015445541288 -174.024692049182 0.177414143336938 159.002834373888 0.79963494571158 -9.91646967750648 
                0.802329132238207 -9.26141004388778 0.178460297698096 163.600223328125 0.203019008092237 -174.024219025496 0.177862439503864 161.260962852756 
                0.22051242052727 20.7222908444731 0.177142906265346 -14.6196811565224 0.210464388175588 14.7558305195252 0.177234552205   -18.1697311611234 
                0.178460306018191 163.600262540554 0.802329055434233 -9.26124216525861 0.177862036920278 161.260522993545 0.203014067270238 -174.025187126396 
                0.177142584623787 -14.6196661403014 0.220504540409396 20.719661045593  0.177234699188731 -18.1695390320672 0.210465018327075 14.7571231169622 
                0.203019519008679 -174.024017634729 0.177862544958699 161.260815076351 0.799633217700906 -9.91685111120929 0.177413955198225 159.002938413888 
                0.210464115627949 14.7560360232583 0.177234146513355 -18.1693511363437 0.2281968950141  22.7093417038165 0.177055572641056 -20.7310321933278 
                0.177861794632794 161.260605380992 0.203015293940652 -174.024939137019 0.177413771500651 159.00202754992  0.799634648069624 -9.91641330825691 
                0.177235026549199 -18.1696902859725 0.210464291945978 14.7563383801626 0.177055469623322 -20.7310125311563 0.22818473786475 22.7062931088008 
! Port Impedance50               0                0                0                0                0                0                0                
!               0                0                0                0                0                0                0                0                
!               0                0                50               0                0                0                0                0                
!               0                0                0                0                0                0                0                0                
!               0                0                0                0                50               0                0                0                
!               0                0                0                0                0                0                0                0                
!               0                0                0                0                0                0                50               0                
!               0                0                0                0                0                0                0                0                
!               0                0                0                0                0                0                0                0                